ROOT
ATOM      1 C1   BNZ G 900      26.626   5.330   3.074  1.00  0.00    0.000 A
ATOM      2 C2   BNZ G 900      25.816   5.062   4.180  1.00  0.00    0.000 A
ATOM      3 C3   BNZ G 900      25.813   5.924   5.279  1.00  0.00    0.000 A
ATOM      4 C4   BNZ G 900      26.617   7.065   5.270  1.00  0.00    0.000 A
ATOM      5 C5   BNZ G 900      27.429   7.329   4.166  1.00  0.00    0.000 A
ATOM      6 C6   BNZ G 900      27.432   6.468   3.066  1.00  0.00    0.000 A
ATOM      7 H1   BNZ G 900      26.628   4.646   2.213  1.00  0.00    0.000 H
ATOM      8 H2   BNZ G 900      25.177   4.167   4.185  1.00  0.00    0.000 H
ATOM      9 H3   BNZ G 900      25.178   5.704   6.150  1.00  0.00    0.000 H
ATOM     10 H4   BNZ G 900      26.611   7.753   6.129  1.00  0.00    0.000 H
ATOM     11 H5   BNZ G 900      28.071   8.222   4.162  1.00  0.00    0.000 H
ATOM     12 H6   BNZ G 900      28.068   6.687   2.196  1.00  0.00    0.000 H
ENDROOT
TORSDOF 0
